<?xml version="1.0" encoding="UTF-8"?>

<!-- generated on 07/31/25 23:28:36 by Eclipse SUMO GUI Version 1.8.0
<configuration xmlns:xsi="http://www.w3.org/2001/XMLSchema-instance" xsi:noNamespaceSchemaLocation="http://sumo.dlr.de/xsd/sumoConfiguration.xsd">

    <input>
        <net-file value="C:\Users\mubas\Mubashir\projects\lasp_ven\simulations\lasp_ven_example\straight.net.xml"/>
        <route-files value="C:\Users\mubas\Mubashir\projects\lasp_ven\simulations\lasp_ven_example\straight.rou.xml"/>
    </input>

    <output>
        <fcd-output value="C:\Users\mubas\Mubashir\projects\lasp_ven\simulations\lasp_ven_example\straight.fcd.xml"/>
        <fcd-output.geo value="true"/>
    </output>

    <time>
        <begin value="0"/>
        <end value="300"/>
        <step-length value="0.1"/>
    </time>

    <processing>
        <collision.action value="warn"/>
        <time-to-teleport value="300"/>
        <max-depart-delay value="120"/>
    </processing>

    <routing>
        <device.rerouting.adaptation-steps value="18"/>
        <device.rerouting.adaptation-interval value="10"/>
    </routing>

    <report>
        <verbose value="true"/>
        <duration-log.statistics value="true"/>
        <no-step-log value="false"/>
    </report>

    <gui_only>
        <tracker-interval value="0.1"/>
    </gui_only>

</configuration>
-->

<fcd-export xmlns:xsi="http://www.w3.org/2001/XMLSchema-instance" xsi:noNamespaceSchemaLocation="http://sumo.dlr.de/xsd/fcd_file.xsd">
</fcd-export>
